% Model:              3Dmikrofon_4Elektrody_Rt0p5mm_30deg_freq_Missing3_1800Hz_MeshRef_LtCorr2.mph
% Version:            COMSOL 6.3.0.335
% Date:               Apr 3 2025, 00:19
% Dimension:          1
% Nodes:              1
% Expressions:        8
% Description:        Global
% frekv                   , , , , , , ,            , , , , , , ,            , , , , , , ,            , , , , , , ,            , , , , , , ,            , , , , , , ,            , , , , , , ,            , , , , , , , 
10 -5.051777269347750E-08 -5.052200336270049E-08 -5.052423044612910E-08 -5.052065110950825E-08 2.736302018943252E-09 2.401815025611200E-09 2.209019270779034E-09 2.544131213020861E-09
20 -4.983803322315929E-08 -4.985178211742193E-08 -4.985831726777596E-08 -4.984709086581694E-08 2.716708716031400E-09 2.049363394191391E-09 1.663882266767021E-09 2.331975361795907E-09
30 -4.957607240997139E-08 -4.960503996821177E-08 -4.961779391813176E-08 -4.958865731838880E-08 3.010158724920140E-09 2.009840381870878E-09 1.430827535476480E-09 2.437010766911143E-09
50 -4.941450260487408E-08 -4.950028119664260E-08 -4.954330611563504E-08 -4.946274847898176E-08 3.877871965832405E-09 2.200711237713232E-09 1.231475538724352E-09 2.914712938839250E-09
100 -4.987310382085495E-08 -5.019206383879727E-08 -5.037894349251786E-08 -5.000686764362509E-08 6.678491502351015E-09 3.235956225327867E-09 1.228530174917943E-09 4.658635945960318E-09
200 -5.245822138601363E-08 -5.418356042351148E-08 -5.519178228715255E-08 -5.343022512935831E-08 1.430953566265395E-08 6.930223494691329E-09 2.685528883135445E-09 9.853877007319206E-09
300 -5.651572263560188E-08 -6.179723444700206E-08 -6.482994835558619E-08 -5.975973944051969E-08 2.652503651563490E-08 1.472707497256624E-08 8.016626282826978E-09 1.934902719510846E-08
400 -5.930071712049671E-08 -7.236828312564991E-08 -7.982271445035492E-08 -6.753526862377375E-08 4.900944796167927E-08 3.371742978382241E-08 2.524192193257975E-08 3.982632416759187E-08
450 -5.607803766023814E-08 -7.510491897676442E-08 -8.583044236252840E-08 -6.807985048412978E-08 6.731543342896979E-08 5.235650436286461E-08 4.435923239665578E-08 5.856756374602547E-08
500 -4.235723123930708E-08 -6.770773018874312E-08 -8.158432952635170E-08 -5.818411574514651E-08 9.025599085351639E-08 7.863822357421064E-08 7.291495253224414E-08 8.395757552579786E-08
550 -1.042964030834813E-08 -4.016731484666391E-08 -5.562487823023918E-08 -2.849805680524350E-08 1.073621834160815E-07 1.023048601134049E-07 1.003479748790297E-07 1.054365141321638E-07
600 2.966767892381177E-08 -6.209761288214850E-10 -1.557658461144633E-08 1.188268633817984E-08 9.970793063707899E-08 1.023782807027447E-07 1.040928322043293E-07 1.023571117459563E-07
650 5.298379134080334E-08 2.538986954211152E-08 1.209881588952241E-08 3.706804463282753E-08 7.223117293464194E-08 8.109829842242754E-08 8.540771810748783E-08 7.816123041490692E-08
700 5.713532278896653E-08 3.347988724234485E-08 2.222444896481178E-08 4.347347295976338E-08 4.575504800496821E-08 5.836168336788860E-08 6.420621061142177E-08 5.358907181363315E-08
800 4.615759481300697E-08 2.942556959680091E-08 2.193472923086119E-08 3.622755580478327E-08 1.603943442291694E-08 3.115260005580301E-08 3.779775262656715E-08 2.524310838602966E-08
900 3.450553679190104E-08 2.215468957407641E-08 1.733309841396762E-08 2.690443518023512E-08 4.160166266033836E-09 1.936619135987936E-08 2.515267308139285E-08 1.366757744966336E-08
1000 2.612817029845551E-08 1.678440072281706E-08 1.336384479202464E-08 2.028705035667353E-08 -1.239589989835379E-09 1.396367853461016E-08 1.802720344278922E-08 8.763342546173020E-09
1150 1.715140682194558E-08 1.247916016212134E-08 8.266094007409381E-09 1.491080478864382E-08 -4.564933744446151E-09 9.977400008749239E-09 1.212723072526165E-08 5.519998566280794E-09
1300 1.165563704516561E-08 9.747611525899193E-09 4.923109487693207E-09 1.162088658151646E-08 -4.878960026880262E-09 6.995058882234647E-09 9.732310121925501E-09 3.152284673849734E-09
1500 7.791259466039466E-09 6.747060219566968E-09 2.476932837022668E-09 8.375552888798467E-09 -4.777679980090410E-09 4.776205877392503E-09 8.120028374305628E-09 1.440752533918521E-09
1700 4.818502623269478E-09 4.877351551620477E-09 1.653777792882619E-09 6.078187258949606E-09 -5.322765030812139E-09 3.958523487742982E-09 7.782040203744863E-09 3.563756773236592E-10
1800 2.955528940982046E-09 4.441668539986493E-09 2.131350221901077E-09 4.955258036012752E-09 -5.082518569403926E-09 3.610875896037714E-09 7.217383670475920E-09 1.604269350534724E-10
1900 1.509722735222131E-09 4.075122614331131E-09 2.361835550826772E-09 4.059552122919056E-09 -3.957581097743276E-09 3.099042452323667E-09 5.935353146808539E-09 1.987867274953777E-10
2000 1.136183738372728E-09 3.538174522016454E-09 1.718181297488319E-09 3.531455386528232E-09 -2.804410177117375E-09 2.625635821088870E-09 4.676321335397390E-09 3.667073386064683E-10
2100 1.125188179396989E-09 3.020463579806295E-09 8.722116026485710E-10 3.198576807194567E-09 -2.235486097597450E-09 2.368149301025835E-09 4.096156175459671E-09 4.236500675413763E-10
2200 1.048692526772978E-09 2.656475806426436E-09 2.680354435994567E-10 2.950037509540364E-09 -1.957291595986744E-09 2.208994545371054E-09 3.865479173022660E-09 4.067761631842665E-10
2300 8.815326751588514E-10 2.398961693309489E-09 -1.542803691450039E-10 2.741785592657263E-09 -1.772609466366102E-09 2.020401991542552E-09 3.720374753338236E-09 3.106755315136984E-10
2400 6.347827730935574E-10 2.155876901979587E-09 -5.072304517539979E-10 2.511633698697678E-09 -1.539546275979142E-09 1.799889470819597E-09 3.667786119565876E-09 1.677275870364331E-10
2450 5.201267777188532E-10 2.030861060312642E-09 -6.412690939708434E-10 2.383899025893414E-09 -1.362000390413195E-09 1.685589327956315E-09 3.706786541824110E-09 8.973683305428712E-11
2512 4.496568058149790E-10 1.859206851889049E-09 -7.142283759769618E-10 2.201459811929173E-09 -1.078117334444088E-09 1.543724555346509E-09 3.818398534800397E-09 -7.429342612859134E-12
2585 5.623824679315598E-10 1.619699017651454E-09 -5.806089397830653E-10 1.939483318516508E-09 -7.370139275473245E-10 1.417061418895455E-09 3.951632534939055E-09 -7.750255194548660E-11
2651 8.222106174191758E-10 1.425784384898433E-09 -2.833388119354747E-10 1.720349674021339E-09 -5.979726476706272E-10 1.381033313894550E-09 3.890630536552348E-09 -5.235263040327095E-11
2700 9.962171584544166E-10 1.334679765518964E-09 -7.411057849493102E-11 1.613088145226076E-09 -6.423193220991020E-10 1.364483319053596E-09 3.681350190399963E-09 -1.534084052265402E-11
2800 1.088578581972203E-09 1.185418292608563E-09 5.812149092620444E-11 1.456561677305801E-09 -8.659846372570044E-10 1.256353864496179E-09 3.054088813308098E-09 -2.376335878437511E-12
2900 9.932852548823198E-10 9.945043227665515E-10 -1.276985040266109E-10 1.295311430923328E-09 -9.850062926326681E-10 1.138358671503963E-09 2.510426697861244E-09 -1.966439295996988E-11
3000 8.968229232304129E-10 8.159265762957510E-10 -4.255680748614759E-10 1.128000848819604E-09 -1.026037800998729E-09 1.083054376528962E-09 2.133936995051128E-09 -2.835338328916151E-11
3100 8.604974200883489E-10 6.367783900725199E-10 -7.344110762666799E-10 9.896530428756197E-10 -9.976599108003953E-10 1.006020091973279E-09 1.898293897386184E-09 -3.471821650354350E-11
3200 8.841028939447920E-10 4.871902989759754E-10 -1.059013804434051E-09 8.529629262041842E-10 -1.046974016433110E-09 9.602233448260844E-10 1.801189155241468E-09 -3.083854634852323E-11
3275 8.759457332108966E-10 3.778526589518070E-10 -1.242563230693831E-09 7.613243701730162E-10 -1.153524724480269E-09 9.274748595002024E-10 1.833008721846217E-09 -2.312617058593445E-11
3350 8.114725341802416E-10 2.612084402432645E-10 -1.338504020129806E-09 6.799184413597374E-10 -1.275602377391314E-09 9.071011263721042E-10 1.899867199632879E-09 -2.129610811450871E-11
3425 6.948031500053551E-10 1.516941594546688E-10 -1.353514364651705E-09 5.916314201506125E-10 -1.393972306784514E-09 9.145870128835482E-10 1.967773317159280E-09 -2.942576224366353E-11
3500 5.211278670048998E-10 6.848266388803370E-11 -1.296033954194357E-09 4.867867729034477E-10 -1.470357108721302E-09 9.355445827639010E-10 1.993678173763148E-09 -2.807703042729923E-11
3600 2.840223256692221E-10 -1.993315129610577E-11 -1.194804763758561E-09 3.432646680846918E-10 -1.464014668242747E-09 9.580402956065257E-10 1.932585487519637E-09 9.569900181967758E-12
3700 1.105034184516048E-10 -1.039995376178122E-10 -1.117966870068585E-09 2.157678707286678E-10 -1.387927084993611E-09 9.896852545447744E-10 1.820921098797556E-09 8.687098337462436E-11
3800 1.466966642230020E-11 -1.687603975328138E-10 -1.042295548912330E-09 1.255123650624154E-10 -1.298413490133856E-09 1.054608421183377E-09 1.694571506549439E-09 2.054230407763301E-10
3860 -3.746164536605128E-12 -1.810034169188462E-10 -9.832165596359744E-10 1.046714570139147E-10 -1.266042009376436E-09 1.106903938774393E-09 1.598185413694654E-09 2.870901540967096E-10
3900 -7.711290669412407E-12 -1.757143213360902E-10 -9.424686599192409E-10 1.044616783348067E-10 -1.267446842842025E-09 1.140284467789740E-09 1.512625742913803E-09 3.375611194863561E-10
4000 -8.782235690665126E-11 -1.161213414789538E-10 -9.190122482865249E-10 1.360578946638339E-10 -1.346725458974837E-09 1.199544589870474E-09 1.203192981589706E-09 4.519958509704424E-10
4100 -2.935699940966685E-10 6.845905577896398E-12 -1.080277360076864E-09 2.518046819658800E-10 -1.432972575403722E-09 1.265503424743729E-09 9.520607490637303E-10 5.562767464939258E-10
4200 -5.508250098984483E-10 1.813909091927329E-10 -1.284951121293548E-09 4.171975098806488E-10 -1.339608468872490E-09 1.158027474787746E-09 8.859474347241797E-10 4.997109341572249E-10
4350 -7.432067772767657E-10 2.173501521136410E-10 -1.378766354256875E-09 4.472502358981228E-10 -1.106466947954425E-09 8.796417819515077E-10 9.050217544658630E-10 2.973035573846156E-10
4500 -8.436572532292320E-10 1.229834001881334E-10 -1.362137771493097E-09 3.652770333577431E-10 -9.196456181209234E-10 6.933664721392611E-10 8.575141253107534E-10 1.975352508559612E-10
4625 -9.022078676169706E-10 1.771482934923038E-11 -1.344869217870307E-09 3.189701349360227E-10 -7.979051136226766E-10 5.978254175917079E-10 7.925937088615953E-10 1.619258233954959E-10
4750 -9.894312796901072E-10 -8.575175841666841E-11 -1.295934978850547E-09 2.930523665182279E-10 -6.844607421082016E-10 5.699433944328272E-10 7.142483824693017E-10 1.042882554066577E-10
5000 -1.033584549802007E-09 -1.286604494642850E-10 -1.324695443872246E-09 1.310004035391114E-10 -3.273644909861786E-10 5.324622345014302E-10 4.207119597424837E-10 2.462926868602519E-11
5250 -9.910754420388859E-10 -1.726711360017315E-10 -1.434021049064927E-09 3.339083098570997E-11 -1.411914219676642E-10 4.457973559352055E-10 3.200118404925203E-10 3.008790403850791E-11
5400 -1.003554750034944E-09 -1.791772170971954E-10 -1.458782228460620E-09 1.066038333296720E-11 -1.787957776066747E-12 3.791393203199468E-10 3.150750352304392E-10 1.329836282144834E-11
5500 -9.820615808341339E-10 -1.997494387068153E-10 -1.437864862481388E-09 -1.843432040177934E-11 1.453644089079176E-10 2.950198094292446E-10 3.247338495476190E-10 -3.038693670756104E-11
5550 -9.336003682396616E-10 -2.358639352011769E-10 -1.411571746081729E-09 -5.270707062405538E-11 2.496263472159304E-10 2.422675981908503E-10 3.087297712029655E-10 -4.898720076545641E-11
5600 -7.627667045788350E-10 -3.164998785184418E-10 -1.457997707402370E-09 -7.616251670921278E-11 3.974087181118332E-10 1.868599755935287E-10 2.218736761531316E-10 -3.701522469901425E-11
5650 -5.870408101193542E-10 -3.997607275218884E-10 -1.485555365888072E-09 -1.022448794827904E-10 3.076033730323082E-11 2.931186641562974E-10 5.866045487885786E-10 -1.390917586722386E-10
5700 -7.270746925167429E-10 -3.819368600503415E-10 -1.219753056178989E-09 -2.037391988720433E-10 8.840491580999560E-11 2.885906626611895E-10 4.656260497315344E-10 -9.568796810029216E-11
5750 -7.205861819690823E-10 -3.963183728255439E-10 -1.148828251802615E-09 -2.401878445624803E-10 1.098608184152696E-10 2.943475888757203E-10 3.514086916800038E-10 -5.424752220932240E-11
5800 -7.155080201290353E-10 -4.050233838545613E-10 -1.119483259425401E-09 -2.602811373451706E-10 1.077004788090912E-10 3.041678745518008E-10 2.631650087537758E-10 -2.401521832800951E-11
5900 -7.329983925995086E-10 -4.073475936959517E-10 -1.098304383116872E-09 -2.879318906413354E-10 1.046130222768573E-10 3.174847688314452E-10 1.348281073792046E-10 1.413288502006876E-11
6000 -7.654904248618217E-10 -3.974418643654175E-10 -1.085131083992769E-09 -3.179533944801022E-10 1.327934998411391E-10 3.169102130863136E-10 3.250974780148303E-11 4.069714773712383E-11
6250 -7.502173946967933E-10 -3.787283101706346E-10 -1.123546394943135E-09 -3.850316086715102E-10 2.552373816250405E-10 2.462036356150461E-10 -1.610967993540542E-10 1.313513613980633E-10
6500 -7.247294487196541E-10 -4.593937423712610E-10 -1.136385592645944E-09 -3.717943299532606E-10 3.541660590774568E-10 1.610761773934638E-10 -2.627961220836409E-10 1.985423728052466E-10
6750 -6.423665523480019E-10 -5.820596543523969E-10 -1.092547454594238E-09 -4.405629369877167E-10 4.331542991517472E-10 1.699745944712120E-10 -3.259629824872980E-10 2.350306635843890E-10
6900 -6.223352430037981E-10 -6.166589886576381E-10 -1.062773828324445E-09 -4.692510700841438E-10 4.466604096202627E-10 2.560288424170843E-10 -3.816694341455414E-10 3.370163496890071E-10
7000 -6.268352484871847E-10 -5.736469069092580E-10 -1.035797887142706E-09 -4.331870458294739E-10 4.692992445876111E-10 3.409246154409929E-10 -4.226155877149787E-10 4.403813643664372E-10
7050 -6.120482125892165E-10 -5.316451541469067E-10 -1.025570520757584E-09 -3.839903739782238E-10 4.906960697219035E-10 3.623875325422760E-10 -4.246182954688841E-10 4.701421694356015E-10
7100 -6.005463647945144E-10 -4.696590489094709E-10 -1.002279996109276E-09 -3.231137601111005E-10 5.075145338107571E-10 3.622696161166465E-10 -4.410059761511560E-10 4.802202575399463E-10
7150 -5.882436578287448E-10 -4.157400857827017E-10 -9.765533302486508E-10 -2.715401057652985E-10 5.190579206552391E-10 3.326438853375805E-10 -4.677423833890082E-10 4.631334891431450E-10
7200 -5.804491271471887E-10 -3.828711522824878E-10 -9.564855521551572E-10 -2.408840084040698E-10 5.288191307478811E-10 2.869677762002812E-10 -5.041409830997173E-10 4.340179486145858E-10
7250 -5.755131442397314E-10 -3.704229854092230E-10 -9.461949830830885E-10 -2.276693058177775E-10 5.425408547655919E-10 2.392484661029888E-10 -5.450443941285052E-10 4.074935129981950E-10
7350 -5.566734020028180E-10 -3.833045862171529E-10 -9.540338342943098E-10 -2.202028671337799E-10 5.799499022730260E-10 1.610440512537223E-10 -6.191133425824361E-10 3.763093473055398E-10
7500 -5.063893812877841E-10 -4.397862677593127E-10 -9.871318915341415E-10 -2.085575190879573E-10 6.315131910417194E-10 9.091059528833368E-11 -6.875745276586010E-10 3.577208524504881E-10
7750 -3.386110656712462E-10 -5.668192352757121E-10 -1.099239832473451E-09 -1.489070446000640E-10 6.570557103234807E-10 1.067839532458843E-10 -7.122716835924573E-10 2.877178390966973E-10
8000 -4.045994884495214E-10 -5.137035674746852E-10 -9.597157600825251E-10 -2.530218818336589E-10 5.476196805846265E-10 1.692507714846006E-10 -5.931385701446819E-10 2.100942192041040E-10
8250 -4.342991061340286E-10 -5.050943656124459E-10 -8.710894100080832E-10 -3.181801758724293E-10 6.667166429149636E-10 1.571246415472555E-10 -6.628965617965869E-10 2.667924179543049E-10
8400 -4.010605035301028E-10 -4.922631143013670E-10 -8.389053396146677E-10 -3.146737810828186E-10 7.534919890658477E-10 1.944232237130851E-10 -6.408420285722024E-10 3.280636766072756E-10
8500 -3.362384232507214E-10 -4.320358472804221E-10 -7.524589816366331E-10 -2.667564866583334E-10 8.075029114005934E-10 2.156378073221956E-10 -6.147889421462816E-10 3.582464248116010E-10
8550 -2.929251553406898E-10 -3.945035056257355E-10 -6.948832663472491E-10 -2.366758999202179E-10 8.136315219831967E-10 2.009830869156043E-10 -6.303307568691954E-10 3.501315739280253E-10
8600 -2.582312704900408E-10 -3.694527786405824E-10 -6.483948860848645E-10 -2.184011041041618E-10 8.049641364726588E-10 1.724489740239041E-10 -6.647668603643620E-10 3.291859766776777E-10
8700 -2.237334684491087E-10 -3.589170719247908E-10 -6.003790575668845E-10 -2.190424315768800E-10 7.833944212957455E-10 1.175638495534289E-10 -7.438383708155265E-10 2.900974171379185E-10
8750 -2.143698663774268E-10 -3.625224926397069E-10 -5.900440701236172E-10 -2.273540122837850E-10 7.794898802378277E-10 9.935520267564038E-11 -7.780432507960258E-10 2.793536244343747E-10
8850 -1.945171560815831E-10 -3.698638333792115E-10 -5.832690420080372E-10 -2.445865261780098E-10 7.810736333158241E-10 7.861753588365711E-11 -8.342604186490001E-10 2.707726228866117E-10
9000 -1.577211324562007E-10 -3.596553242002044E-10 -5.974770928955191E-10 -2.640070711865301E-10 7.875500279602806E-10 5.839095919846981E-11 -8.815747303461909E-10 2.715272293739815E-10
9250 -1.020897103577415E-10 -3.750209710340284E-10 -5.490589498334135E-10 -2.927733694051047E-10 7.610716252855039E-10 -6.929128380769328E-12 -8.587617932088635E-10 3.033406881064361E-10
9500 -1.091405066680562E-10 -3.869927169307954E-10 -4.790540753131578E-10 -2.664026370376389E-10 7.987893766734341E-10 -2.554976848324094E-11 -9.020706732069131E-10 3.227724014989074E-10
9750 -8.729147510038373E-11 -3.859218676916649E-10 -4.299820066770125E-10 -2.578081352583388E-10 8.805372012979298E-10 -2.650537055343249E-11 -9.165155701301887E-10 3.452312620011428E-10
9800 -6.887610372166406E-11 -3.859462622427293E-10 -4.137584329308839E-10 -2.562356392657256E-10 9.098795518939223E-10 -2.560507066097895E-11 -9.087243501587895E-10 3.529941978148952E-10
9900 1.609468032678238E-12 -3.734229279598284E-10 -3.541172782270173E-10 -2.392599276910353E-10 9.576746591130549E-10 -1.905905473529460E-11 -8.983456042739133E-10 3.733562680544784E-10
10000 8.019256069373296E-11 -3.514516176583996E-10 -2.808233747076305E-10 -2.149520915266065E-10 9.523542504698597E-10 -3.433491001310177E-11 -9.350522403918196E-10 3.733458390815122E-10
